                         Program Version 4.2.0 -  RELEASE  -
|  1> %output
|  2> Print[P_Hirshfeld] 1
|  3> end
|  5> *xyz 0 1
|  6>   O      1.784914    1.262422    0.511985
|  7>   H      2.648237    1.072929    0.131631
|  8>   H      1.183168    1.256816   -0.238835
|  9> *
| 11>                          ****END OF INPUT****

CARTESIAN COORDINATES (ANGSTROEM)
---------------------------------
  O      1.784914    1.262422    0.511985
  H      2.648237    1.072929    0.131631
  H      1.183168    1.256816   -0.238835

 Total Charge           Charge          ....    0
 Multiplicity           Mult            ....    1
 Number of Electrons    NEL             ....   10
 Basis Dimension        Dim             ....   24

ORBITAL ENERGIES
----------------

  NO   OCC          E(Eh)            E(eV)
   0   2.0000     -20.546355      -559.0948
   1   2.0000      -1.316260       -35.8172
   2   2.0000      -0.701022       -19.0758
   3   2.0000      -0.567129       -15.4324
   4   2.0000      -0.497642       -13.5415
   5   0.0000       0.175482         4.7751
   6   0.0000       0.254603         6.9281
   7   0.0000       0.791411        21.5354
   8   0.0000       0.863828        23.5059
   9   0.0000       1.184997        32.2454

MULLIKEN ATOMIC CHARGES
-----------------------
   0 O :   -0.352727
   1 H :    0.176369
   2 H :    0.176358
Sum of atomic charges:   -0.0000000

LOEWDIN ATOMIC CHARGES
----------------------
   0 O :   -0.161104
   1 H :    0.080560
   2 H :    0.080544

  Mayer bond orders larger than 0.100000
B(  0-O ,  1-H ) :   0.9953 B(  0-O ,  2-H ) :   0.9954

FINAL SINGLE POINT ENERGY       -75.960703431800

DIPOLE MOMENT
-------------
                                X             Y             Z
Electronic contribution:     -0.03095       0.02308       0.13382
Nuclear contribution   :      0.21773      -0.16239      -0.94154
                        -----------------------------------------
Total Dipole Moment    :      0.18678      -0.13931      -0.80772
                        -----------------------------------------
Magnitude (a.u.)       :      0.84066
Magnitude (Debye)      :      2.13679

Rotational constants in cm-1:    27.172637    14.432751     9.426085
Rotational constants in MHz : 814615.168427 432682.991980 282586.906303

                             ****ORCA TERMINATED NORMALLY****
TOTAL RUN TIME: 0 days 0 hours 0 minutes 39 seconds 621 msec
